 &FCI NORB=           9 , NELEC=           4 , MS2=           0 ,
 ORBSYM=1,1,1,1,1,1,1,1,1,
 ISYM=0,
 &end
   2.26262971337310                1           1           1           1
 -0.201223765985945                2           1           1           1
 -2.286208048345990E-015           3           1           1           1
  3.505460192582106E-015           4           1           1           1
 -2.007837185280666E-015           5           1           1           1
  0.158055416026162                6           1           1           1
 -7.442472711847682E-014           7           1           1           1
  3.344612178156176E-014           8           1           1           1
 -2.295026302483152E-013           9           1           1           1
 -0.201223765985946                1           1           2           1
  2.701318371640502E-002           2           1           2           1
 -2.162502056312244E-002           6           1           2           1
  1.039670221527395E-014           7           1           2           1
 -4.672863271525515E-015           8           1           2           1
  3.205973278594597E-014           9           1           2           1
 -2.286208048345990E-015           1           1           3           1
  1.973256139448324E-003           3           1           3           1
 -4.564930559729440E-015           6           1           3           1
 -4.319003079065978E-003           7           1           3           1
  3.128945458253024E-003           8           1           3           1
 -9.944946713148044E-004           9           1           3           1
  3.505460192582105E-015           1           1           4           1
  1.973256139448360E-003           4           1           4           1
  6.916181512091528E-015           6           1           4           1
 -2.113313046703100E-003           7           1           4           1
 -1.391803681491581E-003           8           1           4           1
  4.798947531261277E-003           9           1           4           1
 -2.007837185280666E-015           1           1           5           1
  1.973256139448298E-003           5           1           5           1
 -4.046378268356422E-015           6           1           5           1
 -2.512613638948492E-003           7           1           5           1
 -4.207812942662864E-003           8           1           5           1
 -2.326841178487656E-003           9           1           5           1
  0.158055416026162                1           1           6           1
 -2.162502056312245E-002           2           1           6           1
 -4.564930559729441E-015           3           1           6           1
  6.916181512091531E-015           4           1           6           1
 -4.046378268356423E-015           5           1           6           1
  1.743526093594592E-002           6           1           6           1
 -2.211170385374803E-015           9           1           6           1
 -7.442472711847684E-014           1           1           7           1
  1.039670221527395E-014           2           1           7           1
 -4.319003079065978E-003           3           1           7           1
 -2.113313046703100E-003           4           1           7           1
 -2.512613638948493E-003           5           1           7           1
  1.528456687817521E-002           7           1           7           1
  3.344612178156177E-014           1           1           8           1
 -4.672863271525516E-015           2           1           8           1
  3.128945458253024E-003           3           1           8           1
 -1.391803681491581E-003           4           1           8           1
 -4.207812942662864E-003           5           1           8           1
  1.528456687817535E-002           8           1           8           1
 -2.295026302483153E-013           1           1           9           1
  3.205973278594600E-014           2           1           9           1
 -9.944946713148044E-004           3           1           9           1
  4.798947531261277E-003           4           1           9           1
 -2.326841178487656E-003           5           1           9           1
 -2.211170385374803E-015           6           1           9           1
  1.528456687817525E-002           9           1           9           1
 -0.200774928672323                1           2           1           1
  0.495767870584523                2           2           1           1
 -1.410800505840899E-015           3           2           1           1
  2.064958307485067E-015           4           2           1           1
 -1.252006971069879E-015           5           2           1           1
 -0.185846661987313                6           2           1           1
  9.203062098518702E-014           7           2           1           1
 -4.138573472924424E-014           8           2           1           1
  2.838035079291785E-013           9           2           1           1
  2.858889389282880E-002           1           2           2           1
 -8.857862603224621E-003           2           2           2           1
  7.598971765614978E-003           6           2           2           1
 -3.633802872925599E-015           7           2           2           1
  1.632920301499717E-015           8           2           2           1
 -1.120564256308283E-014           9           2           2           1
  5.440326614411640E-003           3           2           3           1
 -3.422521200315025E-015           6           2           3           1
 -3.647500551841109E-003           7           2           3           1
  2.642468661570590E-003           8           2           3           1
 -8.398743404480668E-004           9           2           3           1
  5.440326614411697E-003           4           2           4           1
  5.178854128511308E-015           6           2           4           1
 -1.784742998083173E-003           7           2           4           1
 -1.175411224155204E-003           8           2           4           1
  4.052825026537714E-003           9           2           4           1
  5.440326614411597E-003           5           2           5           1
 -3.035514467073705E-015           6           2           5           1
 -2.121961820089762E-003           7           2           5           1
 -3.553597844094688E-003           8           2           5           1
 -1.965072570500643E-003           9           2           5           1
 -2.314833297804174E-002           1           2           6           1
  6.132979682314407E-003           2           2           6           1
 -9.793048494407447E-015           3           2           6           1
  1.482471711314164E-014           4           2           6           1
 -8.685082537710944E-015           5           2           6           1
 -5.223939749985661E-003           6           2           6           1
  7.739763838404436E-015           7           2           6           1
 -3.478507810636657E-015           8           2           6           1
  2.386665091442777E-014           9           2           6           1
  1.124098456588334E-014           1           2           7           1
 -2.515677664404263E-015           2           2           7           1
 -9.809983037033902E-003           3           2           7           1
 -4.800081120707019E-003           4           2           7           1
 -5.707033944054325E-003           5           2           7           1
  7.415697970096694E-015           6           2           7           1
  1.055546932048132E-002           7           2           7           1
 -5.052177641511804E-015           1           2           8           1
  1.125886385825267E-015           2           2           8           1
  7.106941418505441E-003           3           2           8           1
 -3.161278252495788E-003           4           2           8           1
 -9.557430924421025E-003           5           2           8           1
 -3.332421526369830E-015           6           2           8           1
  1.055546932048152E-002           8           2           8           1
  3.466269818966997E-014           1           2           9           1
 -7.755938834747222E-015           2           2           9           1
 -2.258849016178096E-003           3           2           9           1
  1.090010657910188E-002           4           2           9           1
 -5.285079003873309E-003           5           2           9           1
  2.286263976040054E-014           6           2           9           1
  1.055546932048137E-002           9           2           9           1
 -3.073182396322601E-015           1           3           1           1
 -1.100585136051881E-015           2           3           1           1
  0.368735236081884                3           3           1           1
 -1.095267848778761E-015           4           3           1           1
 -1.477571996160670E-013           6           3           1           1
 -0.145553523878706                7           3           1           1
  0.105447722341401                8           3           1           1
 -3.351518886153845E-002           9           3           1           1
 -2.460660659206769E-003           3           3           2           1
  4.538164230764751E-015           6           3           2           1
  4.357728245888556E-003           7           3           2           1
 -3.157000296981175E-003           8           3           2           1
  1.003411537393787E-003           9           3           2           1
  3.334906859148497E-003           1           3           3           1
  5.554773589505559E-003           2           3           3           1
 -1.358349578431544E-003           6           3           3           1
  1.835945938246390E-015           9           3           3           1
 -7.590294455502063E-015           1           3           6           1
 -9.988793637115662E-015           2           3           6           1
  1.505422908120945E-003           3           3           6           1
 -2.763191075529483E-003           7           3           6           1
  2.001821718527927E-003           8           3           6           1
 -6.362530311122012E-004           9           3           6           1
 -7.250637104636098E-003           1           3           7           1
 -1.000807230729830E-002           2           3           7           1
  2.605534710948656E-003           6           3           7           1
 -3.271540950613671E-015           9           3           7           1
  5.252797375383707E-003           1           3           8           1
  7.250449193604426E-003           2           3           8           1
 -1.887605970845116E-003           6           3           8           1
  2.449723942854911E-015           9           3           8           1
 -1.669533415974627E-003           1           3           9           1
 -2.304461098437863E-003           2           3           9           1
 -2.240915986766988E-015           3           3           9           1
  5.999510392858089E-004           6           3           9           1
  3.679047259358699E-015           7           3           9           1
 -2.739152671792882E-015           8           3           9           1
  4.695204737177663E-015           1           4           1           1
  1.601580576554558E-015           2           4           1           1
 -1.244538966967410E-015           3           4           1           1
  0.368735236081885                4           4           1           1
  2.236779677213759E-013           6           4           1           1
 -7.122017636371006E-002           7           4           1           1
 -4.690478952663024E-002           8           4           1           1
  0.161727998636935                9           4           1           1
 -2.460660659206818E-003           4           4           2           1
 -6.871934993660411E-015           6           4           2           1
  2.132261493551533E-003           7           4           2           1
  1.404282910786703E-003           8           4           2           1
 -4.841975989523228E-003           9           4           2           1
  3.334906859148556E-003           1           4           4           1
  5.554773589505619E-003           2           4           4           1
 -1.358349578431573E-003           6           4           4           1
  1.810183476032499E-015           9           4           4           1
  1.149621319847796E-014           1           4           6           1
  1.512142889318294E-014           2           4           6           1
  1.505422908120971E-003           4           4           6           1
 -1.352045285346933E-003           7           4           6           1
 -8.904414841070919E-004           8           4           6           1
  3.070247635290640E-003           9           4           6           1
 -3.547778436279959E-003           1           4           7           1
 -4.897007339928931E-003           2           4           7           1
  1.274903119419942E-003           6           4           7           1
 -3.165763739926152E-015           9           4           7           1
 -2.336526098882599E-003           1           4           8           1
 -3.225112746375704E-003           2           4           8           1
  8.396365403232603E-004           6           4           8           1
  8.056356153580139E-003           1           4           9           1
  1.112020830098124E-002           2           4           9           1
 -2.504902309898658E-015           4           4           9           1
 -2.895071881131133E-003           6           4           9           1
  3.214773865452323E-015           7           4           9           1
 -2.709442087920102E-015           1           5           1           1
 -1.233336060613854E-015           4           5           1           1
  0.368735236081883                5           5           1           1
 -1.310244481668733E-013           6           5           1           1
 -8.467689478326161E-002           7           5           1           1
 -0.141806335956461                8           5           1           1
 -7.841622866085270E-002           9           5           1           1
 -2.460660659206753E-003           5           5           2           1
  4.023803985442523E-015           6           5           2           1
  2.535142305992178E-003           7           5           2           1
  4.245541153358663E-003           8           5           2           1
  2.347704167273975E-003           9           5           2           1
  3.334906859148448E-003           1           5           5           1
  5.554773589505515E-003           2           5           5           1
 -1.358349578431522E-003           6           5           5           1
  1.828751078154815E-015           9           5           5           1
 -6.729374874500899E-015           1           5           6           1
 -8.858720903944555E-015           2           5           6           1
  1.505422908120917E-003           5           5           6           1
 -1.607507903165835E-003           7           5           6           1
 -2.692054383341167E-003           8           5           6           1
 -1.488655289396556E-003           9           5           6           1
 -4.218114538625069E-003           1           5           7           1
 -5.822273917975183E-003           2           5           7           1
  1.515790086655621E-003           6           5           7           1
  1.549806256068061E-015           8           5           7           1
 -1.384722323883711E-015           9           5           7           1
 -7.063973813613759E-003           1           5           8           1
 -9.750420505572560E-003           2           5           8           1
  2.538456787036608E-003           6           5           8           1
 -1.460813122814682E-015           7           5           8           1
 -3.784859286767827E-015           9           5           8           1
 -3.906244259725397E-003           1           5           9           1
 -5.391798601574421E-003           2           5           9           1
 -2.283491710353667E-015           5           5           9           1
  1.403718716200915E-003           6           5           9           1
  1.671511821602905E-015           7           5           9           1
  4.123597170266965E-015           8           5           9           1
  0.187334697733376                1           6           1           1
 -0.192802384374560                2           6           1           1
 -1.447076570946009E-013           3           6           1           1
  2.190329308034005E-013           4           6           1           1
 -1.283204187920297E-013           5           6           1           1
  0.421761141636472                6           6           1           1
  7.672839929531457E-014           7           6           1           1
 -3.444936422905676E-014           8           6           1           1
  2.364335074588663E-013           9           6           1           1
 -2.439217067693478E-002           1           6           2           1
  7.238829034901638E-003           2           6           2           1
  3.996883189201728E-015           3           6           2           1
 -6.051718647335278E-015           4           6           2           1
  3.543736981169295E-015           5           6           2           1
 -6.921561364237142E-003           6           6           2           1
 -3.072001348540323E-015           7           6           2           1
  1.380095330513012E-015           8           6           2           1
 -9.467058854168062E-015           9           6           2           1
 -7.666334108248226E-015           1           6           3           1
 -3.732526380612826E-015           2           6           3           1
 -1.553630950206098E-003           3           6           3           1
  8.923592578825891E-015           6           6           3           1
  4.508367195487083E-003           7           6           3           1
 -3.266132207413678E-003           8           6           3           1
  1.038097697585325E-003           9           6           3           1
  1.161078521183272E-014           1           6           4           1
  5.647227005485533E-015           2           6           4           1
 -1.553630950206130E-003           4           6           4           1
 -1.350840955654145E-014           6           6           4           1
  2.205969997968043E-003           7           6           4           1
  1.452826484567303E-003           8           6           4           1
 -5.009354526202571E-003           9           6           4           1
 -6.796598474380898E-015           1           6           5           1
 -3.310759845450157E-015           2           6           5           1
 -1.553630950206078E-003           5           6           5           1
  7.914796663200315E-015           6           6           5           1
  2.622777686747688E-003           7           6           5           1
  4.392301993808666E-003           8           6           5           1
  2.428860143454874E-003           9           6           5           1
  2.030160035923672E-002           1           6           6           1
 -4.892853979539261E-003           2           6           6           1
  4.651700439366354E-003           6           6           6           1
 -4.504107872728649E-015           7           6           6           1
  2.024530567686331E-015           8           6           6           1
 -1.389194436257401E-014           9           6           6           1
  3.093788047201527E-015           1           6           7           1
  7.737945365584229E-015           2           6           7           1
  2.978144130086212E-003           3           6           7           1
  1.457223051212672E-003           4           6           7           1
  1.732558514782830E-003           5           6           7           1
 -1.473909842401425E-014           6           6           7           1
 -1.276361841456581E-002           7           6           7           1
 -1.388270396560800E-015           1           6           8           1
 -3.475387425498336E-015           2           6           8           1
 -2.157546632699176E-003           3           6           8           1
  9.597103517608390E-004           4           6           8           1
  2.901473600801939E-003           5           6           8           1
  6.622471064877829E-015           6           6           8           1
 -1.276361841456594E-002           8           6           8           1
  9.531241058679985E-015           1           6           9           1
  2.385052584106686E-014           2           6           9           1
  6.857481723348851E-004           3           6           9           1
 -3.309087110886788E-003           4           6           9           1
  1.604460166037792E-003           5           6           9           1
 -4.544756959750665E-014           6           6           9           1
 -1.276361841456585E-002           9           6           9           1
 -8.945996001665146E-014           1           7           1           1
  9.666688633137939E-014           2           7           1           1
 -0.144455280433473                3           7           1           1
 -7.068279952957056E-002           4           7           1           1
 -8.403798311571627E-002           5           7           1           1
  7.746061577255864E-014           6           7           1           1
  0.576113080327087                7           7           1           1
  1.197215423829098E-014           1           7           2           1
 -3.486004975890900E-015           2           7           2           1
  3.872405466509831E-003           3           7           2           1
  1.894790266338354E-003           4           7           2           1
  2.252802003742836E-003           5           7           2           1
 -3.113892298110983E-015           6           7           2           1
 -1.270419358653509E-002           7           7           2           1
 -7.465072635976234E-003           1           7           3           1
 -3.999557529449272E-003           2           7           3           1
  4.529388526385006E-003           6           7           3           1
 -4.455750046437291E-015           7           7           3           1
  2.524724399022375E-015           8           7           3           1
 -7.146197485487480E-015           9           7           3           1
 -3.652702975059369E-003           1           7           4           1
 -1.957006502031191E-003           2           7           4           1
  2.216255856077509E-003           6           7           4           1
 -1.925110311265404E-015           7           7           4           1
 -4.342864077084973E-003           1           7           5           1
 -2.326773705478952E-003           2           7           5           1
  2.635007009523342E-003           6           7           5           1
 -2.635164473049195E-015           7           7           5           1
 -1.557470760743306E-015           8           7           5           1
 -5.028632447474353E-015           9           7           5           1
  3.123893729357665E-015           1           7           6           1
  8.148566487288508E-015           2           7           6           1
 -2.398888775361195E-003           3           7           6           1
 -1.173790074643043E-003           4           7           6           1
 -1.395572206120429E-003           5           7           6           1
 -4.562754337236379E-015           6           7           6           1
  8.226160816131126E-003           7           7           6           1
  2.609067932342178E-002           1           7           7           1
  1.166232406028720E-002           2           7           7           1
 -1.293531294181215E-002           6           7           7           1
  8.493653446377509E-015           7           7           7           1
 -2.782381307536773E-015           8           7           7           1
  1.902516666712373E-014           9           7           7           1
 -1.605572879156211E-015           5           7           8           1
  1.720320400787173E-015           7           7           8           1
  6.162030783047032E-015           8           7           8           1
  3.105974506315849E-015           3           7           9           1
  3.172491203041885E-015           4           7           9           1
  1.259472004015359E-015           5           7           9           1
 -1.182165853837856E-014           7           7           9           1
  6.162633827134063E-015           9           7           9           1
  4.020731127770451E-014           1           8           1           1
 -4.348756055062671E-014           2           8           1           1
  0.104652088771082                3           8           1           1
 -4.655087932043955E-002           4           8           1           1
 -0.140736366128136                5           8           1           1
 -3.479938418129190E-014           6           8           1           1
  0.576113080327092                8           8           1           1
  1.037489921219823E-015           9           8           1           1
 -5.382054824547620E-015           1           8           2           1
  1.566898399809042E-015           2           8           2           1
 -2.805403301442055E-003           3           8           2           1
  1.247887090111091E-003           4           8           2           1
  3.772712717014882E-003           5           8           2           1
  1.399490288664047E-015           6           8           2           1
 -1.270419358653527E-002           8           8           2           1
  5.408147364627042E-003           1           8           3           1
  2.897519899313993E-003           2           8           3           1
 -3.281361323169179E-003           6           8           3           1
  2.520465688432966E-015           7           8           3           1
 -1.521790761524636E-015           8           8           3           1
  5.033603579078820E-015           9           8           3           1
 -2.405628194087941E-003           1           8           4           1
 -1.288861987805917E-003           2           8           4           1
  1.459600632489391E-003           6           8           4           1
 -3.229086104497587E-015           9           8           4           1
 -7.272888831181896E-003           1           8           5           1
 -3.896591326575546E-003           2           8           5           1
  4.412782143186879E-003           6           8           5           1
 -1.537483720143367E-015           7           8           5           1
  1.765927465739163E-015           8           8           5           1
 -5.950889121981836E-015           9           8           5           1
 -1.403005654483938E-015           1           8           6           1
 -3.662497267551417E-015           2           8           6           1
  1.737899233020200E-003           3           8           6           1
 -7.730446512574360E-004           4           8           6           1
 -2.337130826763976E-003           5           8           6           1
  2.050456098837649E-015           6           8           6           1
  8.226160816131246E-003           8           8           6           1
  1.433743608765104E-015           5           8           7           1
 -2.779283603740529E-015           7           8           7           1
 -3.831618434011872E-015           8           8           7           1
  2.609067932342203E-002           1           8           8           1
  1.166232406028741E-002           2           8           8           1
 -1.293531294181227E-002           6           8           8           1
  6.169984641880891E-015           7           8           8           1
 -3.828713923631640E-015           8           8           8           1
  1.902423108703591E-014           9           8           8           1
 -2.336205648610499E-015           3           8           9           1
  3.656133814088762E-015           5           8           9           1
 -1.182474814756340E-014           8           8           9           1
 -2.768820615127742E-015           9           8           9           1
 -2.759248165168070E-013           1           9           1           1
  2.981735514503282E-013           2           9           1           1
 -3.326230706587906E-002           3           9           1           1
  0.160507714100494                4           9           1           1
 -7.782455553036617E-002           5           9           1           1
  2.387674540814459E-013           6           9           1           1
  1.217470959681431E-015           8           9           1           1
  0.576113080327089                9           9           1           1
  3.692536836877514E-014           1           9           2           1
 -1.075242383303547E-014           2           9           2           1
  8.916609993357864E-004           3           9           2           1
 -4.302722251721295E-003           4           9           2           1