 &FCI NORB=  19,NELEC= 4,MS2=0,
  ORBSYM=1,1,1,1,1,1,1,1,1,1,1,1,1,1,1,1,1,1,1,
  ISYM=1,
 &END
 1.648443620751276    1    1    1    1
 -0.08866262154904214    1    1    2    1
 0.3409734660664107    1    1    2    2
 -0.06113782368990957    1    1    3    1
 0.00404569666240152    1    1    3    2
 0.2316064279679457    1    1    3    3
 0.1749712342904702    1    1    4    4
 0.1749712342904703    1    1    5    5
 -0.0158293424871037    1    1    6    1
 -0.03598864578275127    1    1    6    2
 0.04964799892856647    1    1    6    3
 0.1744108891448458    1    1    6    6
 0.09057053304382655    1    1    7    1
 -0.03189703059562959    1    1    7    2
 -0.09917426009031323    1    1    7    3
 -0.04648885073068793    1    1    7    6
 0.2936426350753302    1    1    7    7
 0.06368835001692902    1    1    8    4
 0.04956781219100029    1    1    8    5
 0.3466098522085198    1    1    8    8
 -0.04956781219100027    1    1    9    4
 0.063688350016929    1    1    9    5
 0.3466098522085195    1    1    9    9
 -0.0392037934349188    1    1   10    1
 0.04177730687294268    1    1   10    2
 0.0008755371335567154    1    1   10    3
 0.008401095342647241    1    1   10    6
 0.01055462752590407    1    1   10    7
 0.3171372776007957    1    1   10   10
 0.002540913087473866    1    1   11    4
 0.001925809861526108    1    1   11    5
 0.009729837983644889    1    1   11    8
 -0.0001246404582115497    1    1   11    9
 0.3007278303264502    1    1   11   11
 -0.0019258098615261    1    1   12    4
 0.002540913087473888    1    1   12    5
 0.0001246404582115874    1    1   12    8
 0.009729837983644872    1    1   12    9
 0.30072783032645    1    1   12   12
 0.2994844116696319    1    1   13   13
 0.2994844116696317    1    1   14   14
 -0.02779506744903457    1    1   15    1
 -0.05599041448188592    1    1   15    2
 0.0237139982445555    1    1   15    3
 0.04426155247923847    1    1   15    6
 -0.0363835944376685    1    1   15    7
 -0.009297477945934338    1    1   15   10
 0.3343524495484845    1    1   15   15
 0.03897969216610593    1    1   16    1
 0.003038640088329587    1    1   16    2
 -0.007807586539845618    1    1   16    3
 -0.0155531202223105    1    1   16    6
 0.001157313768675668    1    1   16    7
 -0.03447970257063387    1    1   16   10
 0.03918482353263459    1    1   16   15
 0.2968940415594167    1    1   16   16
 -0.0007331432989736923    1    1   17    4
 -0.0006059452953698046    1    1   17    5
 -0.005600876664876297    1    1   17    8
 -0.0001643403165536543    1    1   17    9
 0.007914666225469789    1    1   17   11
 0.000333744602816229    1    1   17   12
 0.3144440959056069    1    1   17   17
 0.0006059452953698055    1    1   18    4
 -0.0007331432989736924    1    1   18    5
 0.0001643403165536606    1    1   18    8
 -0.00560087666487627    1    1   18    9
 -0.0003337446028162243    1    1   18   11
 0.007914666225469795    1    1   18   12
 0.3144440959056073    1    1   18   18
 -0.04803718757466284    1    1   19    1
 0.04149498956049193    1    1   19    2
 0.005294981706957263    1    1   19    3
 -0.01281509418313071    1    1   19    6
 -0.0230504087878958    1    1   19    7
 -0.01251739128696634    1    1   19   10
 -0.007136604816437687    1    1   19   15
 0.03311367059928879    1    1   19   16
 0.3438989529870938    1    1   19   19
 -0.0886626215490421    2    1    1    1
 0.008588735261083526    2    1    2    1
 0.006247126907851014    2    1    2    2
 0.004243603431154772    2    1    3    1
 -0.001736362736833796    2    1    3    2
 -0.002988457667251903    2    1    3    3
 -0.0003450913327456522    2    1    4    4
 -0.0003450913327456517    2    1    5    5
 0.0001366922396262776    2    1    6    1
 -0.0020136646870006    2    1    6    2
 -0.000655724646012098    2    1    6    3
 0.0005310533208746681    2    1    6    6
 -0.00539838779670866    2    1    7    1
 0.0006595481841174753    2    1    7    2
 0.003023057640493439    2    1    7    3
 0.002257715765984802    2    1    7    6
 -0.00502251693882185    2    1    7    7
 -0.000698147559234654    2    1    8    4
 -0.0005433591400711427    2    1    8    5
 -0.003315939008854202    2    1    8    8
 0.000543359140071143    2    1    9    4
 -0.0006981475592346533    2    1    9    5
 -0.003315939008854197    2    1    9    9
 0.004672794217064599    2    1   10    1
 -0.001819090264629372    2    1   10    2
 0.001618800848625647    2    1   10    3
 0.000823366765451083    2    1   10    6
 -0.001571889526489381    2    1   10    7
 -0.001162227878080425    2    1   10   10
 0.001170441138299918    2    1   11    4
 0.000887101214750606    2    1   11    5
 0.00258988434728266    2    1   11    8
 -3.317674685877273e-05    2    1   11    9
 0.0005355535201756442    2    1   11   11
 -0.0008871012147506064    2    1   12    4
 0.00117044113829992    2    1   12    5
 3.317674685877407e-05    2    1   12    8
 0.002589884347282659    2    1   12    9
 0.0005355535201756418    2    1   12   12
 -0.0007684932750452615    2    1   13   13
 -0.0007684932750452683    2    1   14   14
 -0.0004968829682670757    2    1   15    1
 -0.001461734622020407    2    1   15    2
 -0.000702011894001243    2    1   15    3
 -2.463321322564871e-06    2    1   15    6
 0.001285346448386508    2    1   15    7
 -0.001522305064892425    2    1   15   10
 -0.0009136679275526254    2    1   15   15
 -0.004386844611866758    2    1   16    1
 0.002768372207107585    2    1   16    2
 -0.0001282499019718327    2    1   16    3
 -0.00131416621374125    2    1   16    6
 -0.0004876436229956347    2    1   16    7
 -0.001532663037586445    2    1   16   10
 -0.001006629490097893    2    1   16   15
 0.006198307657893824    2    1   16   16
 9.874772640453599e-05    2    1   17    4
 8.161531357792697e-05    2    1   17    5
 0.0005685575147899262    2    1   17    8
 1.668255302700943e-05    2    1   17    9
 0.002006324113789129    2    1   17   11
 8.460241094215338e-05    2    1   17   12
 0.008254925997599501    2    1   17   17
 -8.161531357792706e-05    2    1   18    4
 9.874772640453644e-05    2    1   18    5
 -1.668255302700927e-05    2    1   18    8
 0.0005685575147899267    2    1   18    9
 -8.460241094215253e-05    2    1   18   11
 0.00200632411378913    2    1   18   12
 0.008254925997599511    2    1   18   18
 0.0031994913846122    2    1   19    1
 0.001901080241240973    2    1   19    2
 -0.001085819790378367    2    1   19    3
 -0.001348347169316713    2    1   19    6
 0.00105671551195658    2    1   19    7
 0.0004837300615546286    2    1   19   10
 -0.00473443861740048    2    1   19   15
 0.0008273039795586495    2    1   19   16
 0.007788938554482492    2    1   19   19
 0.3409734660664108    2    2    1    1
 0.006247126907851018    2    2    2    1
 0.4784098181901277    2    2    2    2
 -0.005719285023133419    2    2    3    1
 -0.04013571511882973    2    2    3    2
 0.1576234055620438    2    2    3    3
 0.1563030896799033    2    2    4    4
 0.1563030896799034    2    2    5    5
 -0.00618452681868791    2    2    6    1
 -0.07539430094102974    2    2    6    2
 0.03308067233169323    2    2    6    3
 0.1881263316169249    2    2    6    6
 0.009325787262996609    2    2    7    1
 -0.01470644246172018    2    2    7    2
 -0.03323752338448784    2    2    7    3
 0.008327381290817603    2    2    7    6
 0.1762325533884513    2    2    7    7
 0.03441958305549029    2    2    8    4
 0.02678831258987839    2    2    8    5
 0.2219235586124337    2    2    8    8
 -0.02678831258987836    2    2    9    4
 0.0344195830554903    2    2    9    5
 0.2219235586124335    2    2    9    9
 0.004129591183337124    2    2   10    1
 -0.05286397944110546    2    2   10    2
 0.03242436706361566    2    2   10    3
 0.02633734021289135    2    2   10    6
 -0.009115676811924186    2    2   10    7
 0.266444079957598    2    2   10   10
 0.02613282628498905    2    2   11    4
 0.01980660212947851    2    2   11    5
 0.04469022922554541    2    2   11    8
 -0.0005724875026300187    2    2   11    9
 0.2785139443665268    2    2   11   11
 -0.01980660212947851    2    2   12    4
 0.0261328262849891    2    2   12    5
 0.0005724875026300732    2    2   12    8
 0.04469022922554538    2    2   12    9
 0.2785139443665266    2    2   12   12
 1.002776576982773e-15    2    2   13   12
 0.2350983204235764    2    2   13   13
 0.2350983204235763    2    2   14   14
 -0.01322567658868748    2    2   15    1
 -0.01991965080884933    2    2   15    2
 -0.001339911451686247    2    2   15    3
 0.02748908325730355    2    2   15    6
 -0.00737284268456762    2    2   15    7
 -0.05471316398593122    2    2   15   10
 0.3062128735924335    2    2   15   15
 -0.001494916045697059    2    2   16    1
 0.1055954583005    2    2   16    2
 -0.0194080819565183    2    2   16    3
 -0.06514562044245283    2    2   16    6
 -0.01012785748988202    2    2   16    7
 -0.06493507249629935    2    2   16   10
 -0.01441463163767993    2    2   16   15
 0.4816048496408969    2    2   16   16
 0.004824075231219162    2    2   17    4
 0.003987113699271736    2    2   17    5
 0.01535919987196006    2    2   17    8
 0.0004506679793179453    2    2   17    9
 0.06616974778219969    2    2   17   11
 0.002790237208102798    2    2   17   12
 0.5539277658085315    2    2   17   17
 -0.003987113699271741    2    2   18    4
 0.00482407523121918    2    2   18    5
 -0.0004506679793179415    2    2   18    8
 0.01535919987196008    2    2   18    9
 -0.002790237208102769    2    2   18   11
 0.06616974778219974    2    2   18   12
 1.370199925881571e-15    2    2   18   13
 0.5539277658085322    2    2   18   18
 -0.0003480807426723677    2    2   19    1
 0.01934059035393644    2    2   19    2
 -0.001698558913590179    2    2   19    3
 -0.01148320973994362    2    2   19    6
 -0.00523159854705134    2    2   19    7
 0.02212392148389718    2    2   19   10
 -0.09184521397673581    2    2   19   15
 0.001976763139521511    2    2   19   16
 0.5338351008395302    2    2   19   19
 -0.06113782368990958    3    1    1    1
 0.004243603431154773    3    1    2    1
 -0.005719285023133413    3    1    2    2
 0.004296047902436042    3    1    3    1
 0.0003959433694293631    3    1    3    2
 0.00130456937068648    3    1    3    3
 0.0001064161950762221    3    1    4    4
 0.0001064161950762218    3    1    5    5
 0.001739643598194654    3    1    6    1
 0.001358545051682514    3    1    6    2
 3.097468526342199e-05    3    1    6    3
 -0.000684583300217198    3    1    6    6
 -0.006341135230465739    3    1    7    1
 0.0003630992243679449    3    1    7    2
 -0.0007975992956268805    3    1    7    3
 -0.0008384754810676723    3    1    7    6
 0.001273412554014517    3    1    7    7
 2.713622898305505e-06    3    1    8    4
 2.111977310523524e-06    3    1    8    5
 -0.0008448945444342672    3    1    8    8
 -2.111977310523334e-06    3    1    9    4
 2.713622898304809e-06    3    1    9    5
 -0.0008448945444342676    3    1    9    9
 0.0009864019285739866    3    1   10    1
 -0.0001543970918405203    3    1   10    2
 -0.001350296227823359    3    1   10    3
 -0.0002664642830256482    3    1   10    6
 0.001220374425070878    3    1   10    7
 -0.0004923489098295445    3    1   10   10
 -0.0009216251692478528    3    1   11    4
 -0.000698518516165658    3    1   11    5
 -0.002289598222400501    3    1   11    8
 2.933004352591189e-05    3    1   11    9
 -0.0007873786030431092    3    1   11   11
 0.0006985185161656581    3    1   12    4
 -0.0009216251692478535    3    1   12    5
 -2.933004352591308e-05    3    1   12    8
 -0.0022895982224005    3    1   12    9
 -0.0007873786030431083    3    1   12   12
 -0.0001237955550368739    3    1   13   13
 -0.0001237955550368713    3    1   14   14
 0.004596699444358334    3    1   15    1
 0.001531416780299271    3    1   15    2
 -0.0008388217282802725    3    1   15    3
 -0.001099239361446784    3    1   15    6
 0.001110092736147275    3    1   15    7
 0.002188710491202277    3    1   15   10
 -0.003059102839550215    3    1   15   15
 -0.001842192131966649    3    1   16    1
 -0.0004277009996761752    3    1   16    2
 0.0002994466479091822    3    1   16    3
 0.0005910920597749638    3    1   16    6
 0.0001115580572212977    3    1   16    7
 0.001715945686596236    3    1   16   10
 0.0001145334512596291    3    1   16   15
 -0.004377676329639477    3    1   16   16
 2.984158821032138e-05    3    1   17    4
 2.466416866623517e-05    3    1   17    5
 9.23787839451293e-05    3    1   17    8
 2.71056827435402e-06    3    1   17    9
 -0.001149722511263476    3    1   17   11
 -4.848134740485914e-05    3    1   17   12
 -0.005095749317192441    3    1   17   17
 -2.466416866623524e-05    3    1   18    4
 2.984158821032119e-05    3    1   18    5
 -2.710568274354144e-06    3    1   18    8
 9.237878394512885e-05    3    1   18    9
 4.848134740485878e-05    3    1   18   11
 -0.001149722511263476    3    1   18   12
 -0.005095749317192447    3    1   18   18
 0.003947090618885561    3    1   19    1
 -0.001825707765688726    3    1   19    2
 -8.878575440606218e-05    3    1   19    3
 0.0004913018404421794    3    1   19    6
 0.0005399781829014231    3    1   19    7
 0.0002417301263094221    3    1   19   10
 0.00141036314305101    3    1   19   15
 -0.0005525017111813001    3    1   19   16
 -0.006263412986091181    3    1   19   19
 0.004045696662401558    3    2    1    1
 -0.001736362736833795    3    2    2    1
 -0.04013571511882973    3    2    2    2
 0.0003959433694293618    3    2    3    1
 0.007406724521745961    3    2    3    2
 0.006111498255233128    3    2    3    3
 0.001919946679965475    3    2    4    4
 0.001919946679965475    3    2    5    5
 0.0008195528051644582    3    2    6    1
 0.01026138856033953    3    2    6    2
 -0.0004250346074511372    3    2    6    3
 -0.006523664790050823    3    2    6    6
 -0.0006761419570810337    3    2    7    1
 -9.152977688956495e-05    3    2    7    2
 -0.002375198679379359    3    2    7    3
 -0.004565277132625264    3    2    7    6
 0.005689858949597347    3    2    7    7
 0.001176104889761775    3    2    8    4
 0.0009153470968730211    3    2    8    5
 0.003385940754402753    3    2    8    8
 -0.0009153470968730208    3    2    9    4
 0.001176104889761773    3    2    9    5
 0.003385940754402746    3    2    9    9
 -0.0007479233482956125    3    2   10    1
 0.01350604935306097    3    2   10    2
 -0.004499421160718822    3    2   10    3
 -0.001609387317466957    3    2   10    6
 0.00170633620403455    3    2   10    7
 -0.003885290838224476    3    2   10   10
 -0.003993041077637206    3    2   11    4
 -0.003026407287483227    3    2   11    5
 -0.006640128465769939    3    2   11    8
 8.506088754492867e-05    3    2   11    9
 -0.005438631149954951    3    2   11   11
 0.003026407287483227    3    2   12    4
 -0.003993041077637209    3    2   12    5
 -8.506088754493292e-05    3    2   12    8
 -0.006640128465769936    3    2   12    9
 -0.005438631149954946    3    2   12   12
 0.003729895084972071    3    2   13   13
 0.003729895084972071    3    2   14   14
 0.001762076989105107    3    2   15    1
 -0.001653249353283524    3    2   15    2
 0.001686693265314029    3    2   15    3
 -0.002112512223916637    3    2   15    6
 -0.0002561247468090719    3    2   15    7
 0.01144522642034648    3    2   15   10
 -0.01520510089932779    3    2   15   15
 0.0004698671654539907    3    2   16    1
 -0.01763767105660063    3    2   16    2
 0.003382575141304078    3    2   16    3
 0.009633318485394326    3    2   16    6
 0.001797870690086711    3    2   16    7
 0.0089089726983192    3    2   16   10
 0.006765896538440498    3    2   16   15
 -0.04410465637209808    3    2   16   16
 -0.001130766636787052    3    2   17    4
 -0.0009345822633602828    3    2   17    5
 -0.003057805947840067    3    2   17    8
 -8.972181097631757e-05    3    2   17    9
 -0.01137354357166214    3    2   17   11
 -0.0004795980871211221    3    2   17   12
 -0.05427278195490993    3    2   17   17
 0.0009345822633602839    3    2   18    4
 -0.001130766636787056    3    2   18    5
 8.972181097631622e-05    3    2   18    8
 -0.00305780594784007    3    2   18    9
 0.0004795980871211179    3    2   18   11
 -0.01137354357166215    3    2   18   12
 -0.05427278195491    3    2   18   18
 -0.0004756631217964048    3    2   19    1
 1.89593742546914e-05    3    2   19    2
 -6.215573000145558e-05    3    2   19    3
 -0.0003702213220489386    3    2   19    6
 -1.369904197801446e-05    3    2   19    7
 -0.004861187500734896    3    2   19   10
 0.01399346819367144    3    2   19   15
 0.003501145992084154    3    2   19   16
 -0.05189378155539705    3    2   19   19
 0.2316064279679457    3    3    1    1
 -0.002988457667251901    3    3    2    1
 0.1576234055620438    3    3    2    2
 0.001304569370686488    3    3    3    1
 0.006111498255233127    3    3    3    2
 0.2061286812719333    3    3    3    3
 0.1475330756998896    3    3    4    4
 0.1475330756998897    3    3    5    5
 0.0016987968698437    3    3    6    1
 -0.005134774509777854    3    3    6    2
 0.01390613130225562    3    3    6    3
 0.1279737860192918    3    3    6    6
 -0.002112031491748662    3    3    7    1
 -0.009683342445634926    3    3    7    2
 -0.03792620569297412    3    3    7    3
 -0.03114400742073355    3    3    7    6
 0.1967874676588553    3    3    7    7
 0.02699882457459954    3    3    8    4
 0.02101283304616603    3    3    8    5
 0.1878572870696198    3    3    8    8
 -0.021012833046166    3    3    9    4
 0.02699882457459951    3    3    9    5
 0.1878572870696196    3    3    9    9
 -0.002977771225756088    3    3   10    1
 0.01168164789189492    3    3   10    2
 -0.02485363497718083    3    3   10    3
 0.007094714637229495    3    3   10    6
 0.01956546155817349    3    3   10    7
 0.1975664939781535    3    3   10   10
 -0.01483322224114362    3    3   11    4
 -0.01124240172205258    3    3   11    5
 -0.02331721632032054    3    3   11    8
 0.0002986964974409841    3    3   11    9
 0.1933530695747395    3    3   11   11
 0.01124240172205258    3    3   12    4
 -0.01483322224114362    3    3   12    5
 -0.000298696497440976    3    3   12    8
 -0.02331721632032051    3    3   12    9
 0.1933530695747394    3    3   12   12
 0.1923527276185104    3    3   13   13
 0.1923527276185103    3    3   14   14
 0.003648545001538321    3    3   15    1
 -0.008855065812372619    3    3   15    2
 -0.004743606080471299    3    3   15    3
 0.003630339173352119    3    3   15    6
 0.009782415228764649    3    3   15    7
 0.03101255137385452    3    3   15   10
 0.1779989827623554    3    3   15   15
 0.00136927925745225    3    3   16    1
 0.004279654562742059    3    3   16    2
 -0.004538172569142282    3    3   16    3
 -0.002238095629103111    3    3   16    6
 0.002642014307254056    3    3   16    7
 0.006444718624095452    3    3   16   10
 0.02033246331071373    3    3   16   15
 0.1548442095545141    3    3   16   16
 0.001936384571991396    3    3   17    4
 0.001600428078749952    3    3   17    5
 0.002406994216719807    3    3   17    8
 7.062576364146255e-05    3    3   17    9
 -0.008102582500720242    3    3   17   11
 -0.0003416686315572444    3    3   17   12
 0.1566882516733198    3    3   17   17
 -0.001600428078749953    3    3   18    4
 0.001936384571991393    3    3   18    5
 -7.062576364146149e-05    3    3   18    8
 0.002406994216719808    3    3   18    9
 0.0003416686315572432    3    3   18   11
 -0.00810258250072024    3    3   18   12
 0.15668825167332    3    3   18   18
 0.0005976977680545116    3    3   19    1
 0.004409921300819205    3    3   19    2
 6.420168797808567e-06    3    3   19    3
 -0.005419072771120009    3    3   19    6
 0.0008996546365180872    3    3   19    7
 0.004636613592145553    3    3   19   10
 0.005534772405242475    3    3   19   15
 0.009828067658945739    3    3   19   16
 0.1580030865947983    3    3   19   19
 0.0002803096995606373    4    1    4    1
 0.0004880244159870072    4    1    4    2
 0.0007516324160416776    4    1    4    3
 0.0004234186184499322    4    1    6    4
 -0.0002468546457173677    4    1    7    4
 0.001216700820760819    4    1    8    1
 0.0007968813557878333    4    1    8    2
 0.0008510753695334892    4    1    8    3
 0.0003721560598046907    4    1    8    6
 -0.001258122643048255    4    1    8    7
 -0.0009469423805150743    4    1    9    1
 -0.0006202023662365489    4    1    9    2
 -0.0006623808603333043    4    1    9    3
 -0.0002896442076649519    4    1    9    6
 0.0009791804445755648    4    1    9    7
 0.0005644822453364314    4    1   10    4
 0.001091074786556388    4    1   10    8
 -0.0008491692765158319    4    1   10    9
 0.0001350958556813056    4    1   11    1
 0.0007176872679136261    4    1   11    2
 -0.0005512352131377635    4    1   11    3
 -0.0002281175444569207    4    1   11    6
 0.0005392738745752353    4    1   11    7
 0.0006649975573935182    4    1   11   10
 -0.0001023919048648036    4    1   12    1
 -0.0005439498205795962    4    1   12    2
 0.0004177924127804488    4    1   12    3
 0.0001728949403535105    4    1   12    6
 -0.0004087266702824757    4    1   12    7
 -0.0005040152141498041    4    1   12   10
 -0.0004588165388753238    4    1   13    4
 -0.0006453992275648967    4    1   13    5
 -0.001441880547422509    4    1   13    8
 -0.000432521554149786    4    1   13    9
 -0.0001411270138127421    4    1   13   11
 -4.431206471090142e-05    4    1   13   12
 -0.0006453992275648968    4    1   14    4
 0.0004588165388753244    4    1   14    5
 -0.0004325215541497861    4    1   14    8
 0.001441880547422508    4    1   14    9
 -4.431206471090153e-05    4    1   14   11
 0.0001411270138127417    4    1   14   12
 0.0001610402870865508    4    1   15    4
 0.000348720535894708    4    1   15    8
 -0.0002714046450532832    4    1   15    9
 -0.0004820463257328972    4    1   15   11
 0.0003653527436201088    4    1   15   12
 7.96485924783605e-06    4    1   16    4
 -0.0001931878198903837    4    1   16    8
 0.0001503555606538707    4    1   16    9
 -0.000559513128376867    4    1   16   11
 0.0004240664136028032    4    1   16   12
 -0.0001418462319959611    4    1   17    1
 0.0002896164666046701    4    1   17    2
 -4.434114052000586e-05    4    1   17    3
 -0.000183341975177613    4    1   17    6
 -5.099812858954825e-05    4    1   17    7
 -0.0004351133361955134    4    1   17   10
 0.0001673608115824445    4    1   17   13
 4.489744103759832e-05    4    1   17   14
 -6.512052915774742e-05    4    1   17   15
 0.0002603067557959967    4    1   17   16
 0.0001172363671115967    4    1   18    1
 -0.0002393689414421348    4    1   18    2
 3.664809530011576e-05    4    1   18    3
 0.000151532732356965    4    1   18    6
 4.21501173573574e-05    4    1   18    7
 0.000359622572271228    4    1   18   10
 4.489744103759836e-05    4    1   18   13
 -0.0001673608115824447    4    1   18   14
 5.382232686347604e-05    4    1   18   15
 -0.0002151443711595892    4    1   18   16
 -2.290142844309311e-05    4    1   19    4
 3.427447382762858e-07    4    1   19    8
 -2.667537597034621e-07    4    1   19    9
 -0.0001990705697351154    4    1   19   11
 0.0001508796456775464    4    1   19   12
 0.000260222293009676    4    1   19   17
 -0.0002150745623949504    4    1   19   18
 0.0004880244159870071    4    2    4    1
 0.005652649262828032    4    2    4    2
 0.006505478886724763    4    2    4    3
 0.006483707847593617    4    2    6    4
 0.003422228892311766    4    2    7    4
 0.001750493099157548    4    2    8    1
 0.005253762649743728    4    2    8    2
 0.003397396383420079    4    2    8    3
 0.0006836839794463141    4    2    8    6
 -0.005837111888875015    4    2    8    7
 -0.001362385949041225    4    2    9    1
 -0.00408893495041665    4    2    9    2
 -0.002644149296174068    4    2    9    3
 -0.0005321023245567317    4    2    9    6
 0.004542948055157729    4    2    9    7
 0.004310441963088334    4    2   10    4
 0.007161255156575129    4    2   10    8
 -0.005573511490855002    4    2   10    9
 0.0003849090439315544    4    2   11    1
 0.008995522354518989    4    2   11    2
 -0.002811622741312078    4    2   11    3
 0.0004237144441925758    4    2   11    6
 0.002461787458379128    4    2   11    7
 0.004171345846779125    4    2   11   10
 -0.0002917304162225031    4    2   12    1
 -0.006817889893720758    4    2   12    2
 0.002130986230423535    4    2   12    3
 -0.0003211418206784676    4    2   12    6
 -0.001865838933137654    4    2   12    7
 -0.003161548109285996    4    2   12   10
 -0.004132456773354474    4    2   13    4
 -0.005812964842126266    4    2   13    5
 -0.008510752288228281    4    2   13    8
 -0.002552974178941963    4    2   13    9
 -0.003986474103390556    4    2   13   11
 -0.001251701525210242    4    2   13   12
 -0.005812964842126266    4    2   14    4
 0.004132456773354481    4    2   14    5
 -0.002552974178941964    4    2   14    8
 0.008510752288228278    4    2   14    9
 -0.001251701525210242    4    2   14   11
 0.003986474103390551    4    2   14   12
 -1.923502451168122e-06    4    2   15    4
 0.0009894821008813825    4    2   15    8
 -0.0007701010142327124    4    2   15    9
 -0.003263277678951267    4    2   15   11
 0.002473304721048197    4    2   15   12
 -0.0001813641808426635    4    2   16    4
 -0.001567279742359734    4    2   16    8
 0.001219793382924775    4    2   16    9
 -0.006388749789913363    4    2   16   11
 0.004842163790997557    4    2   16   12
 -9.761159230926179e-05    4    2   17    1
 0.005951151942388828    4    2   17    2
 -0.001285409548534188    4    2   17    3
 -0.00331689292116789    4    2   17    6
 -0.0007417359725364648    4    2   17    7
 -0.005020510825654765    4    2   17   10
 0.001557426622067456    4    2   17   13
 0.0004178067091901873    4    2   17   14
 0.0006545989946547686    4    2   17   15
 0.003967855794151525    4    2   17   16
 8.067629509285798e-05    4    2   18    1
 -0.004918646227237526    4    2   18    2
 0.001062395127457442    4    2   18    3
 0.002741422670903025    4    2   18    6
 0.0006130471677149583    4    2   18    7
 0.004149468350072001    4    2   18   10
 0.0004178067091901875    4    2   18   13
 -0.001557426622067457    4    2   18   14
 -0.0005410281751468337    4    2   18   15
 -0.003279445579790038    4    2   18   16
 -0.0008152661822773645    4    2   19    4
 -0.0005636112959999541    4    2   19    8
 0.0004386513210253745    4    2   19    9
 -0.001724715913921315    4    2   19   11
 0.001307197373941971    4    2   19   12
 0.001154383141355943    4    2   19   17
 -0.0009541013803686928    4    2   19   18
 0.0007516324160416774    4    3    4    1
 0.006505478886724766    4    3    4    2
 0.02174051247679767    4    3    4    3
 0.008178319404484616    4    3    6    4
 0.007651689760279905    4    3    7    4
 0.002560603140724284    4    3    8    1
 0.005384452567723083    4    3    8    2
 0.008127422560919504    4    3    8    3
 0.004340603636002422    4    3    8    6
 -0.01454361399235292    4    3    8    7
 -0.001992884028890204    4    3    9    1
 -0.00419064920911445    4    3    9    2
 -0.006325466980844598    4    3    9    3
 -0.003378235199494907    4    3    9    6
 0.01131910509158634    4    3    9    7
 0.005788274309439238    4    3   10    4
 0.00918054233418786    4    3   10    8
 -0.007145096365529838    4    3   10    9
 -1.793155678551428e-05    4    3   11    1
 0.004427633325770477    4    3   11    2
 -0.01188775409590859    4    3   11    3
 -0.0009511452252448172    4    3   11    6
 0.007408412931402631    4    3   11    7
 0.007191152434384185    4    3   11   10
 1.35906926766992e-05    4    3   12    1
 -0.003355793617666567    4    3   12    2
 0.009009971329660115    4    3   12    3
 0.0007208923687905317    4    3   12    6
 -0.005614987286218695    4    3   12    7
 -0.005450321123593607    4    3   12   10
 -0.007945730702480044    4    3   13    4
 -0.01117694769763483    4    3   13    5
 -0.01502559310785427    4    3   13    8
 -0.004507233899957137    4    3   13    9
 0.002410849731930255    4    3   13   11
 0.000756975765612833    4    3   13   12
 -0.01117694769763483    4    3   14    4
 0.007945730702480053    4    3   14    5
 -0.004507233899957137    4    3   14    8
 0.01502559310785425    4    3   14    9
 0.0007569757656128289    4    3   14   11
 -0.002410849731930256    4    3   14   12
 0.002773135892259525    4    3   15    4
 0.003746176024608682    4    3   15    8
 -0.002915599942106752    4    3   15    9
 -0.003126635751459527    4    3   15   11
 0.002369741016819672    4    3   15   12
 0.00351611091969409    4    3   16    4
 0.0004360582098803255    4    3   16    8
 -0.0003393784176532535    4    3   16    9
 -0.004656357029939897    4    3   16   11
 0.003529147978831341    4    3   16   12
 -0.0001996784024884484    4    3   17    1
 0.0005599976300825721    4    3   17    2
 0.001329958183791139    4    3   17    3
 -0.001384413667314207    4    3   17    6
 -0.001226909646255079    4    3   17    7
 -0.004036413265250066    4    3   17   10
 0.001299619909390402    4    3   17   13
 0.0003486455861526533    4    3   17   14
 5.65148406238e-07    4    3   17   15
 0.001222121386608901    4    3   17   16
 0.0001650348420891404    4    3   18    1
 -0.0004628398429635713    4    3   18    2
 -0.00109921471782522    4    3   18    3
 0.001144222350158604    4    3   18    6
 0.001014044770009939    4    3   18    7
 0.003336108550225376    4    3   18   10
 0.0003486455861526536    4    3   18   13
 -0.001299619909390403    4    3   18   14
 -4.670969760240778e-07    4    3   18   15